+ 0.1 1 2 cbr 1000 ------- 2 1.0 2.0 0 0
- 0.1 1 2 cbr 1000 ------- 2 1.0 2.0 0 0
+ 0.102667 1 2 cbr 1000 ------- 2 1.0 2.0 1 1
- 0.102667 1 2 cbr 1000 ------- 2 1.0 2.0 1 1
+ 0.105333 1 2 cbr 1000 ------- 2 1.0 2.0 2 2
- 0.105333 1 2 cbr 1000 ------- 2 1.0 2.0 2 2
+ 0.108 1 2 cbr 1000 ------- 2 1.0 2.0 3 3
- 0.108 1 2 cbr 1000 ------- 2 1.0 2.0 3 3
+ 0.110667 1 2 cbr 1000 ------- 2 1.0 2.0 4 4
- 0.110667 1 2 cbr 1000 ------- 2 1.0 2.0 4 4
r 0.1108 1 2 cbr 1000 ------- 2 1.0 2.0 0 0
+ 0.113333 1 2 cbr 1000 ------- 2 1.0 2.0 5 5
- 0.113333 1 2 cbr 1000 ------- 2 1.0 2.0 5 5
r 0.113467 1 2 cbr 1000 ------- 2 1.0 2.0 1 1
+ 0.116 1 2 cbr 1000 ------- 2 1.0 2.0 6 6
- 0.116 1 2 cbr 1000 ------- 2 1.0 2.0 6 6
r 0.116133 1 2 cbr 1000 ------- 2 1.0 2.0 2 2
+ 0.118667 1 2 cbr 1000 ------- 2 1.0 2.0 7 7
- 0.118667 1 2 cbr 1000 ------- 2 1.0 2.0 7 7
r 0.1188 1 2 cbr 1000 ------- 2 1.0 2.0 3 3
+ 0.121333 1 2 cbr 1000 ------- 2 1.0 2.0 8 8
- 0.121333 1 2 cbr 1000 ------- 2 1.0 2.0 8 8
r 0.121467 1 2 cbr 1000 ------- 2 1.0 2.0 4 4
+ 0.124 1 2 cbr 1000 ------- 2 1.0 2.0 9 9
- 0.124 1 2 cbr 1000 ------- 2 1.0 2.0 9 9
r 0.124133 1 2 cbr 1000 ------- 2 1.0 2.0 5 5
+ 0.126667 1 2 cbr 1000 ------- 2 1.0 2.0 10 10
- 0.126667 1 2 cbr 1000 ------- 2 1.0 2.0 10 10
r 0.1268 1 2 cbr 1000 ------- 2 1.0 2.0 6 6
+ 0.129333 1 2 cbr 1000 ------- 2 1.0 2.0 11 11
- 0.129333 1 2 cbr 1000 ------- 2 1.0 2.0 11 11
r 0.129467 1 2 cbr 1000 ------- 2 1.0 2.0 7 7
+ 0.132 1 2 cbr 1000 ------- 2 1.0 2.0 12 12
- 0.132 1 2 cbr 1000 ------- 2 1.0 2.0 12 12
r 0.132133 1 2 cbr 1000 ------- 2 1.0 2.0 8 8
+ 0.134667 1 2 cbr 1000 ------- 2 1.0 2.0 13 13
- 0.134667 1 2 cbr 1000 ------- 2 1.0 2.0 13 13
r 0.1348 1 2 cbr 1000 ------- 2 1.0 2.0 9 9
+ 0.137333 1 2 cbr 1000 ------- 2 1.0 2.0 14 14
- 0.137333 1 2 cbr 1000 ------- 2 1.0 2.0 14 14
r 0.137467 1 2 cbr 1000 ------- 2 1.0 2.0 10 10
+ 0.14 1 2 cbr 1000 ------- 2 1.0 2.0 15 15
- 0.14 1 2 cbr 1000 ------- 2 1.0 2.0 15 15
r 0.140133 1 2 cbr 1000 ------- 2 1.0 2.0 11 11
+ 0.142667 1 2 cbr 1000 ------- 2 1.0 2.0 16 16
- 0.142667 1 2 cbr 1000 ------- 2 1.0 2.0 16 16
r 0.1428 1 2 cbr 1000 ------- 2 1.0 2.0 12 12
+ 0.145333 1 2 cbr 1000 ------- 2 1.0 2.0 17 17
- 0.145333 1 2 cbr 1000 ------- 2 1.0 2.0 17 17
r 0.145467 1 2 cbr 1000 ------- 2 1.0 2.0 13 13
+ 0.148 1 2 cbr 1000 ------- 2 1.0 2.0 18 18
- 0.148 1 2 cbr 1000 ------- 2 1.0 2.0 18 18
r 0.148133 1 2 cbr 1000 ------- 2 1.0 2.0 14 14
+ 0.150667 1 2 cbr 1000 ------- 2 1.0 2.0 19 19
- 0.150667 1 2 cbr 1000 ------- 2 1.0 2.0 19 19
r 0.1508 1 2 cbr 1000 ------- 2 1.0 2.0 15 15
+ 0.153333 1 2 cbr 1000 ------- 2 1.0 2.0 20 20
- 0.153333 1 2 cbr 1000 ------- 2 1.0 2.0 20 20
r 0.153467 1 2 cbr 1000 ------- 2 1.0 2.0 16 16
+ 0.156 1 2 cbr 1000 ------- 2 1.0 2.0 21 21
- 0.156 1 2 cbr 1000 ------- 2 1.0 2.0 21 21
r 0.156133 1 2 cbr 1000 ------- 2 1.0 2.0 17 17
+ 0.158667 1 2 cbr 1000 ------- 2 1.0 2.0 22 22
- 0.158667 1 2 cbr 1000 ------- 2 1.0 2.0 22 22
r 0.1588 1 2 cbr 1000 ------- 2 1.0 2.0 18 18
+ 0.161333 1 2 cbr 1000 ------- 2 1.0 2.0 23 23
- 0.161333 1 2 cbr 1000 ------- 2 1.0 2.0 23 23
r 0.161467 1 2 cbr 1000 ------- 2 1.0 2.0 19 19
+ 0.164 1 2 cbr 1000 ------- 2 1.0 2.0 24 24
- 0.164 1 2 cbr 1000 ------- 2 1.0 2.0 24 24
r 0.164133 1 2 cbr 1000 ------- 2 1.0 2.0 20 20
+ 0.166667 1 2 cbr 1000 ------- 2 1.0 2.0 25 25
- 0.166667 1 2 cbr 1000 ------- 2 1.0 2.0 25 25
r 0.1668 1 2 cbr 1000 ------- 2 1.0 2.0 21 21
+ 0.169333 1 2 cbr 1000 ------- 2 1.0 2.0 26 26
- 0.169333 1 2 cbr 1000 ------- 2 1.0 2.0 26 26
r 0.169467 1 2 cbr 1000 ------- 2 1.0 2.0 22 22
+ 0.172 1 2 cbr 1000 ------- 2 1.0 2.0 27 27
- 0.172 1 2 cbr 1000 ------- 2 1.0 2.0 27 27
r 0.172133 1 2 cbr 1000 ------- 2 1.0 2.0 23 23
+ 0.174667 1 2 cbr 1000 ------- 2 1.0 2.0 28 28
- 0.174667 1 2 cbr 1000 ------- 2 1.0 2.0 28 28
r 0.1748 1 2 cbr 1000 ------- 2 1.0 2.0 24 24
+ 0.177333 1 2 cbr 1000 ------- 2 1.0 2.0 29 29
- 0.177333 1 2 cbr 1000 ------- 2 1.0 2.0 29 29
r 0.177467 1 2 cbr 1000 ------- 2 1.0 2.0 25 25
+ 0.18 1 2 cbr 1000 ------- 2 1.0 2.0 30 30
- 0.18 1 2 cbr 1000 ------- 2 1.0 2.0 30 30
r 0.180133 1 2 cbr 1000 ------- 2 1.0 2.0 26 26
+ 0.182667 1 2 cbr 1000 ------- 2 1.0 2.0 31 31
- 0.182667 1 2 cbr 1000 ------- 2 1.0 2.0 31 31
r 0.1828 1 2 cbr 1000 ------- 2 1.0 2.0 27 27
+ 0.185333 1 2 cbr 1000 ------- 2 1.0 2.0 32 32
- 0.185333 1 2 cbr 1000 ------- 2 1.0 2.0 32 32
r 0.185467 1 2 cbr 1000 ------- 2 1.0 2.0 28 28
+ 0.188 1 2 cbr 1000 ------- 2 1.0 2.0 33 33
- 0.188 1 2 cbr 1000 ------- 2 1.0 2.0 33 33
r 0.188133 1 2 cbr 1000 ------- 2 1.0 2.0 29 29
+ 0.190667 1 2 cbr 1000 ------- 2 1.0 2.0 34 34
- 0.190667 1 2 cbr 1000 ------- 2 1.0 2.0 34 34
r 0.1908 1 2 cbr 1000 ------- 2 1.0 2.0 30 30
+ 0.193333 1 2 cbr 1000 ------- 2 1.0 2.0 35 35
- 0.193333 1 2 cbr 1000 ------- 2 1.0 2.0 35 35
r 0.193467 1 2 cbr 1000 ------- 2 1.0 2.0 31 31
+ 0.196 1 2 cbr 1000 ------- 2 1.0 2.0 36 36
- 0.196 1 2 cbr 1000 ------- 2 1.0 2.0 36 36
r 0.196133 1 2 cbr 1000 ------- 2 1.0 2.0 32 32
+ 0.198667 1 2 cbr 1000 ------- 2 1.0 2.0 37 37
- 0.198667 1 2 cbr 1000 ------- 2 1.0 2.0 37 37
r 0.1988 1 2 cbr 1000 ------- 2 1.0 2.0 33 33
+ 0.201333 1 2 cbr 1000 ------- 2 1.0 2.0 38 38
- 0.201333 1 2 cbr 1000 ------- 2 1.0 2.0 38 38
r 0.201467 1 2 cbr 1000 ------- 2 1.0 2.0 34 34
+ 0.204 1 2 cbr 1000 ------- 2 1.0 2.0 39 39
- 0.204 1 2 cbr 1000 ------- 2 1.0 2.0 39 39
r 0.204133 1 2 cbr 1000 ------- 2 1.0 2.0 35 35
+ 0.206667 1 2 cbr 1000 ------- 2 1.0 2.0 40 40
- 0.206667 1 2 cbr 1000 ------- 2 1.0 2.0 40 40
r 0.2068 1 2 cbr 1000 ------- 2 1.0 2.0 36 36
+ 0.209333 1 2 cbr 1000 ------- 2 1.0 2.0 41 41
- 0.209333 1 2 cbr 1000 ------- 2 1.0 2.0 41 41
r 0.209467 1 2 cbr 1000 ------- 2 1.0 2.0 37 37
+ 0.212 1 2 cbr 1000 ------- 2 1.0 2.0 42 42
- 0.212 1 2 cbr 1000 ------- 2 1.0 2.0 42 42
r 0.212133 1 2 cbr 1000 ------- 2 1.0 2.0 38 38
+ 0.214667 1 2 cbr 1000 ------- 2 1.0 2.0 43 43
- 0.214667 1 2 cbr 1000 ------- 2 1.0 2.0 43 43
r 0.2148 1 2 cbr 1000 ------- 2 1.0 2.0 39 39
+ 0.217333 1 2 cbr 1000 ------- 2 1.0 2.0 44 44
- 0.217333 1 2 cbr 1000 ------- 2 1.0 2.0 44 44
r 0.217467 1 2 cbr 1000 ------- 2 1.0 2.0 40 40
+ 0.22 1 2 cbr 1000 ------- 2 1.0 2.0 45 45
- 0.22 1 2 cbr 1000 ------- 2 1.0 2.0 45 45
r 0.220133 1 2 cbr 1000 ------- 2 1.0 2.0 41 41
+ 0.222667 1 2 cbr 1000 ------- 2 1.0 2.0 46 46
- 0.222667 1 2 cbr 1000 ------- 2 1.0 2.0 46 46
r 0.2228 1 2 cbr 1000 ------- 2 1.0 2.0 42 42
+ 0.225333 1 2 cbr 1000 ------- 2 1.0 2.0 47 47
- 0.225333 1 2 cbr 1000 ------- 2 1.0 2.0 47 47
r 0.225467 1 2 cbr 1000 ------- 2 1.0 2.0 43 43
+ 0.228 1 2 cbr 1000 ------- 2 1.0 2.0 48 48
- 0.228 1 2 cbr 1000 ------- 2 1.0 2.0 48 48
r 0.228133 1 2 cbr 1000 ------- 2 1.0 2.0 44 44
+ 0.230667 1 2 cbr 1000 ------- 2 1.0 2.0 49 49
- 0.230667 1 2 cbr 1000 ------- 2 1.0 2.0 49 49
r 0.2308 1 2 cbr 1000 ------- 2 1.0 2.0 45 45
+ 0.233333 1 2 cbr 1000 ------- 2 1.0 2.0 50 50
- 0.233333 1 2 cbr 1000 ------- 2 1.0 2.0 50 50
r 0.233467 1 2 cbr 1000 ------- 2 1.0 2.0 46 46
+ 0.236 1 2 cbr 1000 ------- 2 1.0 2.0 51 51
- 0.236 1 2 cbr 1000 ------- 2 1.0 2.0 51 51
r 0.236133 1 2 cbr 1000 ------- 2 1.0 2.0 47 47
+ 0.238667 1 2 cbr 1000 ------- 2 1.0 2.0 52 52
- 0.238667 1 2 cbr 1000 ------- 2 1.0 2.0 52 52
r 0.2388 1 2 cbr 1000 ------- 2 1.0 2.0 48 48
+ 0.241333 1 2 cbr 1000 ------- 2 1.0 2.0 53 53
- 0.241333 1 2 cbr 1000 ------- 2 1.0 2.0 53 53
r 0.241467 1 2 cbr 1000 ------- 2 1.0 2.0 49 49
+ 0.244 1 2 cbr 1000 ------- 2 1.0 2.0 54 54
- 0.244 1 2 cbr 1000 ------- 2 1.0 2.0 54 54
r 0.244133 1 2 cbr 1000 ------- 2 1.0 2.0 50 50
+ 0.246667 1 2 cbr 1000 ------- 2 1.0 2.0 55 55
- 0.246667 1 2 cbr 1000 ------- 2 1.0 2.0 55 55
r 0.2468 1 2 cbr 1000 ------- 2 1.0 2.0 51 51
+ 0.249333 1 2 cbr 1000 ------- 2 1.0 2.0 56 56
- 0.249333 1 2 cbr 1000 ------- 2 1.0 2.0 56 56
r 0.249467 1 2 cbr 1000 ------- 2 1.0 2.0 52 52
+ 0.252 1 2 cbr 1000 ------- 2 1.0 2.0 57 57
- 0.252 1 2 cbr 1000 ------- 2 1.0 2.0 57 57
r 0.252133 1 2 cbr 1000 ------- 2 1.0 2.0 53 53
+ 0.254667 1 2 cbr 1000 ------- 2 1.0 2.0 58 58
- 0.254667 1 2 cbr 1000 ------- 2 1.0 2.0 58 58
r 0.2548 1 2 cbr 1000 ------- 2 1.0 2.0 54 54
+ 0.257333 1 2 cbr 1000 ------- 2 1.0 2.0 59 59
- 0.257333 1 2 cbr 1000 ------- 2 1.0 2.0 59 59
r 0.257467 1 2 cbr 1000 ------- 2 1.0 2.0 55 55
+ 0.26 1 2 cbr 1000 ------- 2 1.0 2.0 60 60
- 0.26 1 2 cbr 1000 ------- 2 1.0 2.0 60 60
r 0.260133 1 2 cbr 1000 ------- 2 1.0 2.0 56 56
+ 0.262667 1 2 cbr 1000 ------- 2 1.0 2.0 61 61
- 0.262667 1 2 cbr 1000 ------- 2 1.0 2.0 61 61
r 0.2628 1 2 cbr 1000 ------- 2 1.0 2.0 57 57
+ 0.265333 1 2 cbr 1000 ------- 2 1.0 2.0 62 62
- 0.265333 1 2 cbr 1000 ------- 2 1.0 2.0 62 62
r 0.265467 1 2 cbr 1000 ------- 2 1.0 2.0 58 58
+ 0.268 1 2 cbr 1000 ------- 2 1.0 2.0 63 63
- 0.268 1 2 cbr 1000 ------- 2 1.0 2.0 63 63
r 0.268133 1 2 cbr 1000 ------- 2 1.0 2.0 59 59
+ 0.270667 1 2 cbr 1000 ------- 2 1.0 2.0 64 64
- 0.270667 1 2 cbr 1000 ------- 2 1.0 2.0 64 64
r 0.2708 1 2 cbr 1000 ------- 2 1.0 2.0 60 60
+ 0.273333 1 2 cbr 1000 ------- 2 1.0 2.0 65 65
- 0.273333 1 2 cbr 1000 ------- 2 1.0 2.0 65 65
r 0.273467 1 2 cbr 1000 ------- 2 1.0 2.0 61 61
+ 0.276 1 2 cbr 1000 ------- 2 1.0 2.0 66 66
- 0.276 1 2 cbr 1000 ------- 2 1.0 2.0 66 66
r 0.276133 1 2 cbr 1000 ------- 2 1.0 2.0 62 62
+ 0.278667 1 2 cbr 1000 ------- 2 1.0 2.0 67 67
- 0.278667 1 2 cbr 1000 ------- 2 1.0 2.0 67 67
r 0.2788 1 2 cbr 1000 ------- 2 1.0 2.0 63 63
+ 0.281333 1 2 cbr 1000 ------- 2 1.0 2.0 68 68
- 0.281333 1 2 cbr 1000 ------- 2 1.0 2.0 68 68
r 0.281467 1 2 cbr 1000 ------- 2 1.0 2.0 64 64
+ 0.284 1 2 cbr 1000 ------- 2 1.0 2.0 69 69
- 0.284 1 2 cbr 1000 ------- 2 1.0 2.0 69 69
r 0.284133 1 2 cbr 1000 ------- 2 1.0 2.0 65 65
+ 0.286667 1 2 cbr 1000 ------- 2 1.0 2.0 70 70
- 0.286667 1 2 cbr 1000 ------- 2 1.0 2.0 70 70
r 0.2868 1 2 cbr 1000 ------- 2 1.0 2.0 66 66
+ 0.289333 1 2 cbr 1000 ------- 2 1.0 2.0 71 71
- 0.289333 1 2 cbr 1000 ------- 2 1.0 2.0 71 71
r 0.289467 1 2 cbr 1000 ------- 2 1.0 2.0 67 67
+ 0.292 1 2 cbr 1000 ------- 2 1.0 2.0 72 72
- 0.292 1 2 cbr 1000 ------- 2 1.0 2.0 72 72
r 0.292133 1 2 cbr 1000 ------- 2 1.0 2.0 68 68
+ 0.294667 1 2 cbr 1000 ------- 2 1.0 2.0 73 73
- 0.294667 1 2 cbr 1000 ------- 2 1.0 2.0 73 73
r 0.2948 1 2 cbr 1000 ------- 2 1.0 2.0 69 69
+ 0.297333 1 2 cbr 1000 ------- 2 1.0 2.0 74 74
- 0.297333 1 2 cbr 1000 ------- 2 1.0 2.0 74 74
r 0.297467 1 2 cbr 1000 ------- 2 1.0 2.0 70 70
+ 0.3 1 2 cbr 1000 ------- 2 1.0 2.0 75 75
- 0.3 1 2 cbr 1000 ------- 2 1.0 2.0 75 75
r 0.300133 1 2 cbr 1000 ------- 2 1.0 2.0 71 71
+ 0.302667 1 2 cbr 1000 ------- 2 1.0 2.0 76 76
- 0.302667 1 2 cbr 1000 ------- 2 1.0 2.0 76 76
r 0.3028 1 2 cbr 1000 ------- 2 1.0 2.0 72 72
+ 0.305333 1 2 cbr 1000 ------- 2 1.0 2.0 77 77
- 0.305333 1 2 cbr 1000 ------- 2 1.0 2.0 77 77
r 0.305467 1 2 cbr 1000 ------- 2 1.0 2.0 73 73
+ 0.308 1 2 cbr 1000 ------- 2 1.0 2.0 78 78
- 0.308 1 2 cbr 1000 ------- 2 1.0 2.0 78 78
r 0.308133 1 2 cbr 1000 ------- 2 1.0 2.0 74 74
+ 0.310667 1 2 cbr 1000 ------- 2 1.0 2.0 79 79
- 0.310667 1 2 cbr 1000 ------- 2 1.0 2.0 79 79
r 0.3108 1 2 cbr 1000 ------- 2 1.0 2.0 75 75
+ 0.313333 1 2 cbr 1000 ------- 2 1.0 2.0 80 80
- 0.313333 1 2 cbr 1000 ------- 2 1.0 2.0 80 80
r 0.313467 1 2 cbr 1000 ------- 2 1.0 2.0 76 76
+ 0.316 1 2 cbr 1000 ------- 2 1.0 2.0 81 81
- 0.316 1 2 cbr 1000 ------- 2 1.0 2.0 81 81
r 0.316133 1 2 cbr 1000 ------- 2 1.0 2.0 77 77
+ 0.318667 1 2 cbr 1000 ------- 2 1.0 2.0 82 82
- 0.318667 1 2 cbr 1000 ------- 2 1.0 2.0 82 82
r 0.3188 1 2 cbr 1000 ------- 2 1.0 2.0 78 78
+ 0.321333 1 2 cbr 1000 ------- 2 1.0 2.0 83 83
- 0.321333 1 2 cbr 1000 ------- 2 1.0 2.0 83 83
r 0.321467 1 2 cbr 1000 ------- 2 1.0 2.0 79 79
+ 0.324 1 2 cbr 1000 ------- 2 1.0 2.0 84 84
- 0.324 1 2 cbr 1000 ------- 2 1.0 2.0 84 84
r 0.324133 1 2 cbr 1000 ------- 2 1.0 2.0 80 80
+ 0.326667 1 2 cbr 1000 ------- 2 1.0 2.0 85 85
- 0.326667 1 2 cbr 1000 ------- 2 1.0 2.0 85 85
r 0.3268 1 2 cbr 1000 ------- 2 1.0 2.0 81 81
+ 0.329333 1 2 cbr 1000 ------- 2 1.0 2.0 86 86
- 0.329333 1 2 cbr 1000 ------- 2 1.0 2.0 86 86
r 0.329467 1 2 cbr 1000 ------- 2 1.0 2.0 82 82
+ 0.332 1 2 cbr 1000 ------- 2 1.0 2.0 87 87
- 0.332 1 2 cbr 1000 ------- 2 1.0 2.0 87 87
r 0.332133 1 2 cbr 1000 ------- 2 1.0 2.0 83 83
+ 0.334667 1 2 cbr 1000 ------- 2 1.0 2.0 88 88
- 0.334667 1 2 cbr 1000 ------- 2 1.0 2.0 88 88
r 0.3348 1 2 cbr 1000 ------- 2 1.0 2.0 84 84
+ 0.337333 1 2 cbr 1000 ------- 2 1.0 2.0 89 89
- 0.337333 1 2 cbr 1000 ------- 2 1.0 2.0 89 89
r 0.337467 1 2 cbr 1000 ------- 2 1.0 2.0 85 85
+ 0.34 1 2 cbr 1000 ------- 2 1.0 2.0 90 90
- 0.34 1 2 cbr 1000 ------- 2 1.0 2.0 90 90
r 0.340133 1 2 cbr 1000 ------- 2 1.0 2.0 86 86
+ 0.342667 1 2 cbr 1000 ------- 2 1.0 2.0 91 91
- 0.342667 1 2 cbr 1000 ------- 2 1.0 2.0 91 91
r 0.3428 1 2 cbr 1000 ------- 2 1.0 2.0 87 87
+ 0.345333 1 2 cbr 1000 ------- 2 1.0 2.0 92 92
- 0.345333 1 2 cbr 1000 ------- 2 1.0 2.0 92 92
r 0.345467 1 2 cbr 1000 ------- 2 1.0 2.0 88 88
+ 0.348 1 2 cbr 1000 ------- 2 1.0 2.0 93 93
- 0.348 1 2 cbr 1000 ------- 2 1.0 2.0 93 93
r 0.348133 1 2 cbr 1000 ------- 2 1.0 2.0 89 89
+ 0.350667 1 2 cbr 1000 ------- 2 1.0 2.0 94 94
- 0.350667 1 2 cbr 1000 ------- 2 1.0 2.0 94 94
r 0.3508 1 2 cbr 1000 ------- 2 1.0 2.0 90 90
+ 0.353333 1 2 cbr 1000 ------- 2 1.0 2.0 95 95
- 0.353333 1 2 cbr 1000 ------- 2 1.0 2.0 95 95
r 0.353467 1 2 cbr 1000 ------- 2 1.0 2.0 91 91
+ 0.356 1 2 cbr 1000 ------- 2 1.0 2.0 96 96
- 0.356 1 2 cbr 1000 ------- 2 1.0 2.0 96 96
r 0.356133 1 2 cbr 1000 ------- 2 1.0 2.0 92 92
+ 0.358667 1 2 cbr 1000 ------- 2 1.0 2.0 97 97
- 0.358667 1 2 cbr 1000 ------- 2 1.0 2.0 97 97
r 0.3588 1 2 cbr 1000 ------- 2 1.0 2.0 93 93
+ 0.361333 1 2 cbr 1000 ------- 2 1.0 2.0 98 98
- 0.361333 1 2 cbr 1000 ------- 2 1.0 2.0 98 98
r 0.361467 1 2 cbr 1000 ------- 2 1.0 2.0 94 94
+ 0.364 1 2 cbr 1000 ------- 2 1.0 2.0 99 99
- 0.364 1 2 cbr 1000 ------- 2 1.0 2.0 99 99
r 0.364133 1 2 cbr 1000 ------- 2 1.0 2.0 95 95
+ 0.366667 1 2 cbr 1000 ------- 2 1.0 2.0 100 100
- 0.366667 1 2 cbr 1000 ------- 2 1.0 2.0 100 100
r 0.3668 1 2 cbr 1000 ------- 2 1.0 2.0 96 96
+ 0.369333 1 2 cbr 1000 ------- 2 1.0 2.0 101 101
- 0.369333 1 2 cbr 1000 ------- 2 1.0 2.0 101 101
r 0.369467 1 2 cbr 1000 ------- 2 1.0 2.0 97 97
+ 0.372 1 2 cbr 1000 ------- 2 1.0 2.0 102 102
- 0.372 1 2 cbr 1000 ------- 2 1.0 2.0 102 102
r 0.372133 1 2 cbr 1000 ------- 2 1.0 2.0 98 98
+ 0.374667 1 2 cbr 1000 ------- 2 1.0 2.0 103 103
- 0.374667 1 2 cbr 1000 ------- 2 1.0 2.0 103 103
r 0.3748 1 2 cbr 1000 ------- 2 1.0 2.0 99 99
+ 0.377333 1 2 cbr 1000 ------- 2 1.0 2.0 104 104
- 0.377333 1 2 cbr 1000 ------- 2 1.0 2.0 104 104
r 0.377467 1 2 cbr 1000 ------- 2 1.0 2.0 100 100
+ 0.38 1 2 cbr 1000 ------- 2 1.0 2.0 105 105
- 0.38 1 2 cbr 1000 ------- 2 1.0 2.0 105 105
r 0.380133 1 2 cbr 1000 ------- 2 1.0 2.0 101 101
+ 0.382667 1 2 cbr 1000 ------- 2 1.0 2.0 106 106
- 0.382667 1 2 cbr 1000 ------- 2 1.0 2.0 106 106
r 0.3828 1 2 cbr 1000 ------- 2 1.0 2.0 102 102
+ 0.385333 1 2 cbr 1000 ------- 2 1.0 2.0 107 107
- 0.385333 1 2 cbr 1000 ------- 2 1.0 2.0 107 107
r 0.385467 1 2 cbr 1000 ------- 2 1.0 2.0 103 103
+ 0.388 1 2 cbr 1000 ------- 2 1.0 2.0 108 108
- 0.388 1 2 cbr 1000 ------- 2 1.0 2.0 108 108
r 0.388133 1 2 cbr 1000 ------- 2 1.0 2.0 104 104
+ 0.390667 1 2 cbr 1000 ------- 2 1.0 2.0 109 109
- 0.390667 1 2 cbr 1000 ------- 2 1.0 2.0 109 109
r 0.3908 1 2 cbr 1000 ------- 2 1.0 2.0 105 105
+ 0.393333 1 2 cbr 1000 ------- 2 1.0 2.0 110 110
- 0.393333 1 2 cbr 1000 ------- 2 1.0 2.0 110 110
r 0.393467 1 2 cbr 1000 ------- 2 1.0 2.0 106 106
+ 0.396 1 2 cbr 1000 ------- 2 1.0 2.0 111 111
- 0.396 1 2 cbr 1000 ------- 2 1.0 2.0 111 111
r 0.396133 1 2 cbr 1000 ------- 2 1.0 2.0 107 107
+ 0.398667 1 2 cbr 1000 ------- 2 1.0 2.0 112 112
- 0.398667 1 2 cbr 1000 ------- 2 1.0 2.0 112 112
r 0.3988 1 2 cbr 1000 ------- 2 1.0 2.0 108 108
+ 0.401333 1 2 cbr 1000 ------- 2 1.0 2.0 113 113
- 0.401333 1 2 cbr 1000 ------- 2 1.0 2.0 113 113
r 0.401467 1 2 cbr 1000 ------- 2 1.0 2.0 109 109
+ 0.404 1 2 cbr 1000 ------- 2 1.0 2.0 114 114
- 0.404 1 2 cbr 1000 ------- 2 1.0 2.0 114 114
r 0.404133 1 2 cbr 1000 ------- 2 1.0 2.0 110 110
+ 0.406667 1 2 cbr 1000 ------- 2 1.0 2.0 115 115
- 0.406667 1 2 cbr 1000 ------- 2 1.0 2.0 115 115
r 0.4068 1 2 cbr 1000 ------- 2 1.0 2.0 111 111
+ 0.409333 1 2 cbr 1000 ------- 2 1.0 2.0 116 116
- 0.409333 1 2 cbr 1000 ------- 2 1.0 2.0 116 116
r 0.409467 1 2 cbr 1000 ------- 2 1.0 2.0 112 112
+ 0.412 1 2 cbr 1000 ------- 2 1.0 2.0 117 117
- 0.412 1 2 cbr 1000 ------- 2 1.0 2.0 117 117
r 0.412133 1 2 cbr 1000 ------- 2 1.0 2.0 113 113
+ 0.414667 1 2 cbr 1000 ------- 2 1.0 2.0 118 118
- 0.414667 1 2 cbr 1000 ------- 2 1.0 2.0 118 118
r 0.4148 1 2 cbr 1000 ------- 2 1.0 2.0 114 114
+ 0.417333 1 2 cbr 1000 ------- 2 1.0 2.0 119 119
- 0.417333 1 2 cbr 1000 ------- 2 1.0 2.0 119 119
r 0.417467 1 2 cbr 1000 ------- 2 1.0 2.0 115 115
+ 0.42 1 2 cbr 1000 ------- 2 1.0 2.0 120 120
- 0.42 1 2 cbr 1000 ------- 2 1.0 2.0 120 120
r 0.420133 1 2 cbr 1000 ------- 2 1.0 2.0 116 116
+ 0.422667 1 2 cbr 1000 ------- 2 1.0 2.0 121 121
- 0.422667 1 2 cbr 1000 ------- 2 1.0 2.0 121 121
r 0.4228 1 2 cbr 1000 ------- 2 1.0 2.0 117 117
+ 0.425333 1 2 cbr 1000 ------- 2 1.0 2.0 122 122
- 0.425333 1 2 cbr 1000 ------- 2 1.0 2.0 122 122
r 0.425467 1 2 cbr 1000 ------- 2 1.0 2.0 118 118
+ 0.428 1 2 cbr 1000 ------- 2 1.0 2.0 123 123
- 0.428 1 2 cbr 1000 ------- 2 1.0 2.0 123 123
r 0.428133 1 2 cbr 1000 ------- 2 1.0 2.0 119 119
+ 0.430667 1 2 cbr 1000 ------- 2 1.0 2.0 124 124
- 0.430667 1 2 cbr 1000 ------- 2 1.0 2.0 124 124
r 0.4308 1 2 cbr 1000 ------- 2 1.0 2.0 120 120
+ 0.433333 1 2 cbr 1000 ------- 2 1.0 2.0 125 125
- 0.433333 1 2 cbr 1000 ------- 2 1.0 2.0 125 125
r 0.433467 1 2 cbr 1000 ------- 2 1.0 2.0 121 121
+ 0.436 1 2 cbr 1000 ------- 2 1.0 2.0 126 126
- 0.436 1 2 cbr 1000 ------- 2 1.0 2.0 126 126
r 0.436133 1 2 cbr 1000 ------- 2 1.0 2.0 122 122
+ 0.438667 1 2 cbr 1000 ------- 2 1.0 2.0 127 127
- 0.438667 1 2 cbr 1000 ------- 2 1.0 2.0 127 127
r 0.4388 1 2 cbr 1000 ------- 2 1.0 2.0 123 123
+ 0.441333 1 2 cbr 1000 ------- 2 1.0 2.0 128 128
- 0.441333 1 2 cbr 1000 ------- 2 1.0 2.0 128 128
r 0.441467 1 2 cbr 1000 ------- 2 1.0 2.0 124 124
+ 0.444 1 2 cbr 1000 ------- 2 1.0 2.0 129 129
- 0.444 1 2 cbr 1000 ------- 2 1.0 2.0 129 129
r 0.444133 1 2 cbr 1000 ------- 2 1.0 2.0 125 125
+ 0.446667 1 2 cbr 1000 ------- 2 1.0 2.0 130 130
- 0.446667 1 2 cbr 1000 ------- 2 1.0 2.0 130 130
r 0.4468 1 2 cbr 1000 ------- 2 1.0 2.0 126 126
+ 0.449333 1 2 cbr 1000 ------- 2 1.0 2.0 131 131
- 0.449333 1 2 cbr 1000 ------- 2 1.0 2.0 131 131
r 0.449467 1 2 cbr 1000 ------- 2 1.0 2.0 127 127
+ 0.452 1 2 cbr 1000 ------- 2 1.0 2.0 132 132
- 0.452 1 2 cbr 1000 ------- 2 1.0 2.0 132 132
r 0.452133 1 2 cbr 1000 ------- 2 1.0 2.0 128 128
+ 0.454667 1 2 cbr 1000 ------- 2 1.0 2.0 133 133
- 0.454667 1 2 cbr 1000 ------- 2 1.0 2.0 133 133
r 0.4548 1 2 cbr 1000 ------- 2 1.0 2.0 129 129
+ 0.457333 1 2 cbr 1000 ------- 2 1.0 2.0 134 134
- 0.457333 1 2 cbr 1000 ------- 2 1.0 2.0 134 134
r 0.457467 1 2 cbr 1000 ------- 2 1.0 2.0 130 130
+ 0.46 1 2 cbr 1000 ------- 2 1.0 2.0 135 135
- 0.46 1 2 cbr 1000 ------- 2 1.0 2.0 135 135
r 0.460133 1 2 cbr 1000 ------- 2 1.0 2.0 131 131
+ 0.462667 1 2 cbr 1000 ------- 2 1.0 2.0 136 136
- 0.462667 1 2 cbr 1000 ------- 2 1.0 2.0 136 136
r 0.4628 1 2 cbr 1000 ------- 2 1.0 2.0 132 132
+ 0.465333 1 2 cbr 1000 ------- 2 1.0 2.0 137 137
- 0.465333 1 2 cbr 1000 ------- 2 1.0 2.0 137 137
r 0.465467 1 2 cbr 1000 ------- 2 1.0 2.0 133 133
+ 0.468 1 2 cbr 1000 ------- 2 1.0 2.0 138 138
- 0.468 1 2 cbr 1000 ------- 2 1.0 2.0 138 138
r 0.468133 1 2 cbr 1000 ------- 2 1.0 2.0 134 134
+ 0.470667 1 2 cbr 1000 ------- 2 1.0 2.0 139 139
- 0.470667 1 2 cbr 1000 ------- 2 1.0 2.0 139 139
r 0.4708 1 2 cbr 1000 ------- 2 1.0 2.0 135 135
+ 0.473333 1 2 cbr 1000 ------- 2 1.0 2.0 140 140
- 0.473333 1 2 cbr 1000 ------- 2 1.0 2.0 140 140
r 0.473467 1 2 cbr 1000 ------- 2 1.0 2.0 136 136
+ 0.476 1 2 cbr 1000 ------- 2 1.0 2.0 141 141
- 0.476 1 2 cbr 1000 ------- 2 1.0 2.0 141 141
r 0.476133 1 2 cbr 1000 ------- 2 1.0 2.0 137 137
+ 0.478667 1 2 cbr 1000 ------- 2 1.0 2.0 142 142
- 0.478667 1 2 cbr 1000 ------- 2 1.0 2.0 142 142
r 0.4788 1 2 cbr 1000 ------- 2 1.0 2.0 138 138
+ 0.481333 1 2 cbr 1000 ------- 2 1.0 2.0 143 143
- 0.481333 1 2 cbr 1000 ------- 2 1.0 2.0 143 143
r 0.481467 1 2 cbr 1000 ------- 2 1.0 2.0 139 139
+ 0.484 1 2 cbr 1000 ------- 2 1.0 2.0 144 144
- 0.484 1 2 cbr 1000 ------- 2 1.0 2.0 144 144
r 0.484133 1 2 cbr 1000 ------- 2 1.0 2.0 140 140
+ 0.486667 1 2 cbr 1000 ------- 2 1.0 2.0 145 145
- 0.486667 1 2 cbr 1000 ------- 2 1.0 2.0 145 145
r 0.4868 1 2 cbr 1000 ------- 2 1.0 2.0 141 141
+ 0.489333 1 2 cbr 1000 ------- 2 1.0 2.0 146 146
- 0.489333 1 2 cbr 1000 ------- 2 1.0 2.0 146 146
r 0.489467 1 2 cbr 1000 ------- 2 1.0 2.0 142 142
+ 0.492 1 2 cbr 1000 ------- 2 1.0 2.0 147 147
- 0.492 1 2 cbr 1000 ------- 2 1.0 2.0 147 147
r 0.492133 1 2 cbr 1000 ------- 2 1.0 2.0 143 143
+ 0.494667 1 2 cbr 1000 ------- 2 1.0 2.0 148 148
- 0.494667 1 2 cbr 1000 ------- 2 1.0 2.0 148 148
r 0.4948 1 2 cbr 1000 ------- 2 1.0 2.0 144 144
+ 0.497333 1 2 cbr 1000 ------- 2 1.0 2.0 149 149
- 0.497333 1 2 cbr 1000 ------- 2 1.0 2.0 149 149
r 0.497467 1 2 cbr 1000 ------- 2 1.0 2.0 145 145
+ 0.5 1 2 cbr 1000 ------- 2 1.0 2.0 150 150
- 0.5 1 2 cbr 1000 ------- 2 1.0 2.0 150 150
r 0.500133 1 2 cbr 1000 ------- 2 1.0 2.0 146 146
+ 0.502667 1 2 cbr 1000 ------- 2 1.0 2.0 151 151
- 0.502667 1 2 cbr 1000 ------- 2 1.0 2.0 151 151
r 0.5028 1 2 cbr 1000 ------- 2 1.0 2.0 147 147
+ 0.505333 1 2 cbr 1000 ------- 2 1.0 2.0 152 152
- 0.505333 1 2 cbr 1000 ------- 2 1.0 2.0 152 152
r 0.505467 1 2 cbr 1000 ------- 2 1.0 2.0 148 148
+ 0.508 1 2 cbr 1000 ------- 2 1.0 2.0 153 153
- 0.508 1 2 cbr 1000 ------- 2 1.0 2.0 153 153
r 0.508133 1 2 cbr 1000 ------- 2 1.0 2.0 149 149
+ 0.510667 1 2 cbr 1000 ------- 2 1.0 2.0 154 154
- 0.510667 1 2 cbr 1000 ------- 2 1.0 2.0 154 154
r 0.5108 1 2 cbr 1000 ------- 2 1.0 2.0 150 150
+ 0.513333 1 2 cbr 1000 ------- 2 1.0 2.0 155 155
- 0.513333 1 2 cbr 1000 ------- 2 1.0 2.0 155 155
r 0.513467 1 2 cbr 1000 ------- 2 1.0 2.0 151 151
+ 0.516 1 2 cbr 1000 ------- 2 1.0 2.0 156 156
- 0.516 1 2 cbr 1000 ------- 2 1.0 2.0 156 156
r 0.516133 1 2 cbr 1000 ------- 2 1.0 2.0 152 152
+ 0.518667 1 2 cbr 1000 ------- 2 1.0 2.0 157 157
- 0.518667 1 2 cbr 1000 ------- 2 1.0 2.0 157 157
r 0.5188 1 2 cbr 1000 ------- 2 1.0 2.0 153 153
+ 0.521333 1 2 cbr 1000 ------- 2 1.0 2.0 158 158
- 0.521333 1 2 cbr 1000 ------- 2 1.0 2.0 158 158
r 0.521467 1 2 cbr 1000 ------- 2 1.0 2.0 154 154
+ 0.524 1 2 cbr 1000 ------- 2 1.0 2.0 159 159
- 0.524 1 2 cbr 1000 ------- 2 1.0 2.0 159 159
r 0.524133 1 2 cbr 1000 ------- 2 1.0 2.0 155 155
+ 0.526667 1 2 cbr 1000 ------- 2 1.0 2.0 160 160
- 0.526667 1 2 cbr 1000 ------- 2 1.0 2.0 160 160
r 0.5268 1 2 cbr 1000 ------- 2 1.0 2.0 156 156
+ 0.529333 1 2 cbr 1000 ------- 2 1.0 2.0 161 161
- 0.529333 1 2 cbr 1000 ------- 2 1.0 2.0 161 161
r 0.529467 1 2 cbr 1000 ------- 2 1.0 2.0 157 157
+ 0.532 1 2 cbr 1000 ------- 2 1.0 2.0 162 162
- 0.532 1 2 cbr 1000 ------- 2 1.0 2.0 162 162
r 0.532133 1 2 cbr 1000 ------- 2 1.0 2.0 158 158
+ 0.534667 1 2 cbr 1000 ------- 2 1.0 2.0 163 163
- 0.534667 1 2 cbr 1000 ------- 2 1.0 2.0 163 163
r 0.5348 1 2 cbr 1000 ------- 2 1.0 2.0 159 159
+ 0.537333 1 2 cbr 1000 ------- 2 1.0 2.0 164 164
- 0.537333 1 2 cbr 1000 ------- 2 1.0 2.0 164 164
r 0.537467 1 2 cbr 1000 ------- 2 1.0 2.0 160 160
+ 0.54 1 2 cbr 1000 ------- 2 1.0 2.0 165 165
- 0.54 1 2 cbr 1000 ------- 2 1.0 2.0 165 165
r 0.540133 1 2 cbr 1000 ------- 2 1.0 2.0 161 161
+ 0.542667 1 2 cbr 1000 ------- 2 1.0 2.0 166 166
- 0.542667 1 2 cbr 1000 ------- 2 1.0 2.0 166 166
r 0.5428 1 2 cbr 1000 ------- 2 1.0 2.0 162 162
+ 0.545333 1 2 cbr 1000 ------- 2 1.0 2.0 167 167
- 0.545333 1 2 cbr 1000 ------- 2 1.0 2.0 167 167
r 0.545467 1 2 cbr 1000 ------- 2 1.0 2.0 163 163
+ 0.548 1 2 cbr 1000 ------- 2 1.0 2.0 168 168
- 0.548 1 2 cbr 1000 ------- 2 1.0 2.0 168 168
r 0.548133 1 2 cbr 1000 ------- 2 1.0 2.0 164 164
+ 0.550667 1 2 cbr 1000 ------- 2 1.0 2.0 169 169
- 0.550667 1 2 cbr 1000 ------- 2 1.0 2.0 169 169
r 0.5508 1 2 cbr 1000 ------- 2 1.0 2.0 165 165
+ 0.553333 1 2 cbr 1000 ------- 2 1.0 2.0 170 170
- 0.553333 1 2 cbr 1000 ------- 2 1.0 2.0 170 170
r 0.553467 1 2 cbr 1000 ------- 2 1.0 2.0 166 166
+ 0.556 1 2 cbr 1000 ------- 2 1.0 2.0 171 171
- 0.556 1 2 cbr 1000 ------- 2 1.0 2.0 171 171
r 0.556133 1 2 cbr 1000 ------- 2 1.0 2.0 167 167
+ 0.558667 1 2 cbr 1000 ------- 2 1.0 2.0 172 172
- 0.558667 1 2 cbr 1000 ------- 2 1.0 2.0 172 172
r 0.5588 1 2 cbr 1000 ------- 2 1.0 2.0 168 168
+ 0.561333 1 2 cbr 1000 ------- 2 1.0 2.0 173 173
- 0.561333 1 2 cbr 1000 ------- 2 1.0 2.0 173 173
r 0.561467 1 2 cbr 1000 ------- 2 1.0 2.0 169 169
+ 0.564 1 2 cbr 1000 ------- 2 1.0 2.0 174 174
- 0.564 1 2 cbr 1000 ------- 2 1.0 2.0 174 174
r 0.564133 1 2 cbr 1000 ------- 2 1.0 2.0 170 170
+ 0.566667 1 2 cbr 1000 ------- 2 1.0 2.0 175 175
- 0.566667 1 2 cbr 1000 ------- 2 1.0 2.0 175 175
r 0.5668 1 2 cbr 1000 ------- 2 1.0 2.0 171 171
+ 0.569333 1 2 cbr 1000 ------- 2 1.0 2.0 176 176
- 0.569333 1 2 cbr 1000 ------- 2 1.0 2.0 176 176
r 0.569467 1 2 cbr 1000 ------- 2 1.0 2.0 172 172
+ 0.572 1 2 cbr 1000 ------- 2 1.0 2.0 177 177
- 0.572 1 2 cbr 1000 ------- 2 1.0 2.0 177 177
r 0.572133 1 2 cbr 1000 ------- 2 1.0 2.0 173 173
+ 0.574667 1 2 cbr 1000 ------- 2 1.0 2.0 178 178
- 0.574667 1 2 cbr 1000 ------- 2 1.0 2.0 178 178
r 0.5748 1 2 cbr 1000 ------- 2 1.0 2.0 174 174
+ 0.577333 1 2 cbr 1000 ------- 2 1.0 2.0 179 179
- 0.577333 1 2 cbr 1000 ------- 2 1.0 2.0 179 179
r 0.577467 1 2 cbr 1000 ------- 2 1.0 2.0 175 175
+ 0.58 1 2 cbr 1000 ------- 2 1.0 2.0 180 180
- 0.58 1 2 cbr 1000 ------- 2 1.0 2.0 180 180
r 0.580133 1 2 cbr 1000 ------- 2 1.0 2.0 176 176
+ 0.582667 1 2 cbr 1000 ------- 2 1.0 2.0 181 181
- 0.582667 1 2 cbr 1000 ------- 2 1.0 2.0 181 181
r 0.5828 1 2 cbr 1000 ------- 2 1.0 2.0 177 177
+ 0.585333 1 2 cbr 1000 ------- 2 1.0 2.0 182 182
- 0.585333 1 2 cbr 1000 ------- 2 1.0 2.0 182 182
r 0.585467 1 2 cbr 1000 ------- 2 1.0 2.0 178 178
+ 0.588 1 2 cbr 1000 ------- 2 1.0 2.0 183 183
- 0.588 1 2 cbr 1000 ------- 2 1.0 2.0 183 183
r 0.588133 1 2 cbr 1000 ------- 2 1.0 2.0 179 179
+ 0.590667 1 2 cbr 1000 ------- 2 1.0 2.0 184 184
- 0.590667 1 2 cbr 1000 ------- 2 1.0 2.0 184 184
r 0.5908 1 2 cbr 1000 ------- 2 1.0 2.0 180 180
+ 0.593333 1 2 cbr 1000 ------- 2 1.0 2.0 185 185
- 0.593333 1 2 cbr 1000 ------- 2 1.0 2.0 185 185
r 0.593467 1 2 cbr 1000 ------- 2 1.0 2.0 181 181
+ 0.596 1 2 cbr 1000 ------- 2 1.0 2.0 186 186
- 0.596 1 2 cbr 1000 ------- 2 1.0 2.0 186 186
r 0.596133 1 2 cbr 1000 ------- 2 1.0 2.0 182 182
+ 0.598667 1 2 cbr 1000 ------- 2 1.0 2.0 187 187
- 0.598667 1 2 cbr 1000 ------- 2 1.0 2.0 187 187
r 0.5988 1 2 cbr 1000 ------- 2 1.0 2.0 183 183
+ 0.601333 1 2 cbr 1000 ------- 2 1.0 2.0 188 188
- 0.601333 1 2 cbr 1000 ------- 2 1.0 2.0 188 188
r 0.601467 1 2 cbr 1000 ------- 2 1.0 2.0 184 184
+ 0.604 1 2 cbr 1000 ------- 2 1.0 2.0 189 189
- 0.604 1 2 cbr 1000 ------- 2 1.0 2.0 189 189
r 0.604133 1 2 cbr 1000 ------- 2 1.0 2.0 185 185
+ 0.606667 1 2 cbr 1000 ------- 2 1.0 2.0 190 190
- 0.606667 1 2 cbr 1000 ------- 2 1.0 2.0 190 190
r 0.6068 1 2 cbr 1000 ------- 2 1.0 2.0 186 186
+ 0.609333 1 2 cbr 1000 ------- 2 1.0 2.0 191 191
- 0.609333 1 2 cbr 1000 ------- 2 1.0 2.0 191 191
r 0.609467 1 2 cbr 1000 ------- 2 1.0 2.0 187 187
+ 0.612 1 2 cbr 1000 ------- 2 1.0 2.0 192 192
- 0.612 1 2 cbr 1000 ------- 2 1.0 2.0 192 192
r 0.612133 1 2 cbr 1000 ------- 2 1.0 2.0 188 188
+ 0.614667 1 2 cbr 1000 ------- 2 1.0 2.0 193 193
- 0.614667 1 2 cbr 1000 ------- 2 1.0 2.0 193 193
r 0.6148 1 2 cbr 1000 ------- 2 1.0 2.0 189 189
+ 0.617333 1 2 cbr 1000 ------- 2 1.0 2.0 194 194
- 0.617333 1 2 cbr 1000 ------- 2 1.0 2.0 194 194
r 0.617467 1 2 cbr 1000 ------- 2 1.0 2.0 190 190
+ 0.62 1 2 cbr 1000 ------- 2 1.0 2.0 195 195
- 0.62 1 2 cbr 1000 ------- 2 1.0 2.0 195 195
r 0.620133 1 2 cbr 1000 ------- 2 1.0 2.0 191 191
+ 0.622667 1 2 cbr 1000 ------- 2 1.0 2.0 196 196
- 0.622667 1 2 cbr 1000 ------- 2 1.0 2.0 196 196
r 0.6228 1 2 cbr 1000 ------- 2 1.0 2.0 192 192
+ 0.625333 1 2 cbr 1000 ------- 2 1.0 2.0 197 197
- 0.625333 1 2 cbr 1000 ------- 2 1.0 2.0 197 197
r 0.625467 1 2 cbr 1000 ------- 2 1.0 2.0 193 193
+ 0.628 1 2 cbr 1000 ------- 2 1.0 2.0 198 198
- 0.628 1 2 cbr 1000 ------- 2 1.0 2.0 198 198
r 0.628133 1 2 cbr 1000 ------- 2 1.0 2.0 194 194
+ 0.630667 1 2 cbr 1000 ------- 2 1.0 2.0 199 199
- 0.630667 1 2 cbr 1000 ------- 2 1.0 2.0 199 199
r 0.6308 1 2 cbr 1000 ------- 2 1.0 2.0 195 195
+ 0.633333 1 2 cbr 1000 ------- 2 1.0 2.0 200 200
- 0.633333 1 2 cbr 1000 ------- 2 1.0 2.0 200 200
r 0.633467 1 2 cbr 1000 ------- 2 1.0 2.0 196 196
+ 0.636 1 2 cbr 1000 ------- 2 1.0 2.0 201 201
- 0.636 1 2 cbr 1000 ------- 2 1.0 2.0 201 201
r 0.636133 1 2 cbr 1000 ------- 2 1.0 2.0 197 197
+ 0.638667 1 2 cbr 1000 ------- 2 1.0 2.0 202 202
- 0.638667 1 2 cbr 1000 ------- 2 1.0 2.0 202 202
r 0.6388 1 2 cbr 1000 ------- 2 1.0 2.0 198 198
+ 0.641333 1 2 cbr 1000 ------- 2 1.0 2.0 203 203
- 0.641333 1 2 cbr 1000 ------- 2 1.0 2.0 203 203
r 0.641467 1 2 cbr 1000 ------- 2 1.0 2.0 199 199
+ 0.644 1 2 cbr 1000 ------- 2 1.0 2.0 204 204
- 0.644 1 2 cbr 1000 ------- 2 1.0 2.0 204 204
r 0.644133 1 2 cbr 1000 ------- 2 1.0 2.0 200 200
+ 0.646667 1 2 cbr 1000 ------- 2 1.0 2.0 205 205
- 0.646667 1 2 cbr 1000 ------- 2 1.0 2.0 205 205
r 0.6468 1 2 cbr 1000 ------- 2 1.0 2.0 201 201
+ 0.649333 1 2 cbr 1000 ------- 2 1.0 2.0 206 206
- 0.649333 1 2 cbr 1000 ------- 2 1.0 2.0 206 206
r 0.649467 1 2 cbr 1000 ------- 2 1.0 2.0 202 202
+ 0.652 1 2 cbr 1000 ------- 2 1.0 2.0 207 207
- 0.652 1 2 cbr 1000 ------- 2 1.0 2.0 207 207
r 0.652133 1 2 cbr 1000 ------- 2 1.0 2.0 203 203
+ 0.654667 1 2 cbr 1000 ------- 2 1.0 2.0 208 208
- 0.654667 1 2 cbr 1000 ------- 2 1.0 2.0 208 208
r 0.6548 1 2 cbr 1000 ------- 2 1.0 2.0 204 204
+ 0.657333 1 2 cbr 1000 ------- 2 1.0 2.0 209 209
- 0.657333 1 2 cbr 1000 ------- 2 1.0 2.0 209 209